<?xml version="1.0" encoding="UTF-8"?>

<!-- generated on 2025-11-08 22:20:25 by Eclipse SUMO GUI Version 1.24.0
<sumoConfiguration xmlns:xsi="http://www.w3.org/2001/XMLSchema-instance" xsi:noNamespaceSchemaLocation="http://sumo.dlr.de/xsd/sumoConfiguration.xsd">

    <input>
        <net-file value="net.net.xml"/>
        <route-files value="routes.rou.xml"/>
        <additional-files value="detectors.add.xml,taz.add.xml"/>
    </input>

    <output>
        <summary-output value="summary.xml"/>
        <tripinfo-output value="tripinfo.xml"/>
    </output>

    <time>
        <begin value="0"/>
        <end value="5400"/>
        <step-length value="0.5"/>
    </time>

    <processing>
        <route-steps value="-1"/>
        <time-to-teleport value="-1"/>
    </processing>

    <report>
        <verbose value="true"/>
        <no-warnings value="true"/>
        <no-step-log value="true"/>
    </report>

    <traci_server>
        <remote-port value="57188"/>
    </traci_server>

    <gui_only>
        <quit-on-end value="true"/>
        <start value="true"/>
    </gui_only>

</sumoConfiguration>
-->

<tripinfos xmlns:xsi="http://www.w3.org/2001/XMLSchema-instance" xsi:noNamespaceSchemaLocation="http://sumo.dlr.de/xsd/tripinfo_file.xsd">
    <tripinfo id="v9" depart="9.00" departLane="E_S3N_J3_0" departPos="5.10" departSpeed="0.00" departDelay="0.00" arrival="74.00" arrivalLane="E_J3_O_0" arrivalPos="292.80" arrivalSpeed="11.86" duration="65.00" routeLength="414.15" waitingTime="21.00" waitingCount="1" stopTime="0.00" timeLoss="27.30" rerouteNo="0" devices="tripinfo_v9" vType="car" speedFactor="0.86" vaporized=""/>
    <tripinfo id="v21" depart="22.50" departLane="E_S3N_J3_0" departPos="5.10" departSpeed="0.00" departDelay="0.00" arrival="74.00" arrivalLane="E_J3_O_1" arrivalPos="292.80" arrivalSpeed="13.43" duration="51.50" routeLength="414.15" waitingTime="8.00" waitingCount="1" stopTime="0.00" timeLoss="19.24" rerouteNo="0" devices="tripinfo_v21" vType="car" speedFactor="1.01" vaporized=""/>
    <tripinfo id="v33" depart="36.00" departLane="E_S3N_J3_0" departPos="5.10" departSpeed="0.00" departDelay="0.00" arrival="76.00" arrivalLane="E_J3_O_1" arrivalPos="292.80" arrivalSpeed="13.78" duration="40.00" routeLength="414.15" waitingTime="0.00" waitingCount="0" stopTime="0.00" timeLoss="8.88" rerouteNo="0" devices="tripinfo_v33" vType="car" speedFactor="1.17" vaporized=""/>
    <tripinfo id="v45" depart="49.50" departLane="E_S3N_J3_0" departPos="5.10" departSpeed="0.00" departDelay="0.00" arrival="85.50" arrivalLane="E_J3_O_1" arrivalPos="292.80" arrivalSpeed="13.41" duration="36.00" routeLength="414.15" waitingTime="0.00" waitingCount="0" stopTime="0.00" timeLoss="4.18" rerouteNo="0" devices="tripinfo_v45" vType="car" speedFactor="1.09" vaporized=""/>
    <tripinfo id="v57" depart="63.00" departLane="E_S3N_J3_0" departPos="5.10" departSpeed="0.00" departDelay="0.00" arrival="99.50" arrivalLane="E_J3_O_1" arrivalPos="292.80" arrivalSpeed="13.69" duration="36.50" routeLength="414.15" waitingTime="0.00" waitingCount="0" stopTime="0.00" timeLoss="5.24" rerouteNo="0" devices="tripinfo_v57" vType="car" speedFactor="1.14" vaporized=""/>
    <tripinfo id="v17" depart="18.00" departLane="E_S2N_J2_0" departPos="5.10" departSpeed="0.00" departDelay="0.00" arrival="116.50" arrivalLane="E_J3_O_0" arrivalPos="292.80" arrivalSpeed="12.83" duration="98.50" routeLength="714.15" waitingTime="26.00" waitingCount="2" stopTime="0.00" timeLoss="41.13" rerouteNo="0" devices="tripinfo_v17" vType="car" speedFactor="0.94" vaporized=""/>
    <tripinfo id="v29" depart="31.50" departLane="E_S2N_J2_0" departPos="5.10" departSpeed="0.00" departDelay="0.00" arrival="118.50" arrivalLane="E_J3_O_1" arrivalPos="292.80" arrivalSpeed="12.72" duration="87.00" routeLength="714.15" waitingTime="11.00" waitingCount="1" stopTime="0.00" timeLoss="29.15" rerouteNo="0" devices="tripinfo_v29" vType="car" speedFactor="0.93" vaporized=""/>
    <tripinfo id="v5" depart="4.50" departLane="E_S2N_J2_0" departPos="5.10" departSpeed="0.00" departDelay="0.00" arrival="120.00" arrivalLane="E_J3_O_0" arrivalPos="292.80" arrivalSpeed="10.98" duration="115.50" routeLength="714.15" waitingTime="38.50" waitingCount="2" stopTime="0.00" timeLoss="50.33" rerouteNo="0" devices="tripinfo_v5" vType="car" speedFactor="0.83" vaporized=""/>
    <tripinfo id="v53" depart="58.50" departLane="E_S2N_J2_0" departPos="5.10" departSpeed="0.00" departDelay="0.00" arrival="120.50" arrivalLane="E_J3_O_1" arrivalPos="292.80" arrivalSpeed="13.77" duration="62.00" routeLength="714.15" waitingTime="0.00" waitingCount="0" stopTime="0.00" timeLoss="8.59" rerouteNo="0" devices="tripinfo_v53" vType="car" speedFactor="1.10" vaporized=""/>
    <tripinfo id="v41" depart="45.00" departLane="E_S2N_J2_0" departPos="5.10" departSpeed="0.00" departDelay="0.00" arrival="121.50" arrivalLane="E_J3_O_0" arrivalPos="292.80" arrivalSpeed="13.01" duration="76.50" routeLength="714.15" waitingTime="4.00" waitingCount="1" stopTime="0.00" timeLoss="19.94" rerouteNo="0" devices="tripinfo_v41" vType="car" speedFactor="0.96" vaporized=""/>
    <tripinfo id="v2" depart="2.50" departLane="E_A_J1_0" departPos="5.10" departSpeed="0.00" departDelay="1.00" arrival="137.50" arrivalLane="E_J3_O_1" arrivalPos="292.80" arrivalSpeed="13.66" duration="135.00" routeLength="1194.90" waitingTime="38.50" waitingCount="1" stopTime="0.00" timeLoss="48.95" rerouteNo="0" devices="tripinfo_v2" vType="car" speedFactor="1.01" vaporized=""/>
    <tripinfo id="v65" depart="72.00" departLane="E_S2N_J2_0" departPos="5.10" departSpeed="0.00" departDelay="0.00" arrival="138.00" arrivalLane="E_J3_O_0" arrivalPos="292.80" arrivalSpeed="11.77" duration="66.00" routeLength="714.15" waitingTime="0.00" waitingCount="0" stopTime="0.00" timeLoss="4.40" rerouteNo="0" devices="tripinfo_v65" vType="car" speedFactor="0.88" vaporized=""/>
    <tripinfo id="v0" depart="0.00" departLane="E_A_J1_0" departPos="5.10" departSpeed="0.00" departDelay="0.00" arrival="139.50" arrivalLane="E_J3_O_0" arrivalPos="292.80" arrivalSpeed="13.77" duration="139.50" routeLength="1194.90" waitingTime="41.50" waitingCount="1" stopTime="0.00" timeLoss="53.22" rerouteNo="0" devices="tripinfo_v0" vType="car" speedFactor="1.06" vaporized=""/>
    <tripinfo id="v4" depart="8.50" departLane="E_A_J1_0" departPos="5.10" departSpeed="0.00" departDelay="4.00" arrival="139.50" arrivalLane="E_J3_O_1" arrivalPos="292.80" arrivalSpeed="13.86" duration="131.00" routeLength="1194.90" waitingTime="31.50" waitingCount="1" stopTime="0.00" timeLoss="44.58" rerouteNo="0" devices="tripinfo_v4" vType="car" speedFactor="1.03" vaporized=""/>
    <tripinfo id="v3" depart="5.50" departLane="E_A_J1_0" departPos="5.10" departSpeed="0.00" departDelay="2.50" arrival="141.00" arrivalLane="E_J3_O_1" arrivalPos="292.80" arrivalSpeed="13.69" duration="135.50" routeLength="1194.90" waitingTime="34.00" waitingCount="1" stopTime="0.00" timeLoss="49.19" rerouteNo="0" devices="tripinfo_v3" vType="car" speedFactor="1.08" vaporized=""/>
    <tripinfo id="v6" depart="11.00" departLane="E_A_J1_0" departPos="5.10" departSpeed="0.00" departDelay="5.00" arrival="142.50" arrivalLane="E_J3_O_0" arrivalPos="292.80" arrivalSpeed="13.70" duration="131.50" routeLength="1194.90" waitingTime="30.50" waitingCount="1" stopTime="0.00" timeLoss="45.28" rerouteNo="0" devices="tripinfo_v6" vType="car" speedFactor="1.05" vaporized=""/>
    <tripinfo id="v8" depart="17.00" departLane="E_A_J1_0" departPos="5.10" departSpeed="0.00" departDelay="8.00" arrival="143.50" arrivalLane="E_J3_O_1" arrivalPos="292.80" arrivalSpeed="12.82" duration="126.50" routeLength="1194.90" waitingTime="21.50" waitingCount="1" stopTime="0.00" timeLoss="34.76" rerouteNo="0" devices="tripinfo_v8" vType="car" speedFactor="0.94" vaporized=""/>
    <tripinfo id="v13" depart="13.50" departLane="E_S1N_J1_0" departPos="5.10" departSpeed="0.00" departDelay="0.00" arrival="144.00" arrivalLane="E_J3_O_0" arrivalPos="292.80" arrivalSpeed="13.31" duration="130.50" routeLength="1014.15" waitingTime="34.00" waitingCount="2" stopTime="0.00" timeLoss="56.12" rerouteNo="0" devices="tripinfo_v13" vType="car" speedFactor="1.12" vaporized=""/>
    <tripinfo id="v37" depart="40.50" departLane="E_S1N_J1_0" departPos="5.10" departSpeed="0.00" departDelay="0.00" arrival="145.50" arrivalLane="E_J3_O_1" arrivalPos="292.80" arrivalSpeed="13.87" duration="105.00" routeLength="1014.15" waitingTime="13.00" waitingCount="1" stopTime="0.00" timeLoss="30.84" rerouteNo="0" devices="tripinfo_v37" vType="car" speedFactor="1.18" vaporized=""/>
    <tripinfo id="v7" depart="14.00" departLane="E_A_J1_0" departPos="5.10" departSpeed="0.00" departDelay="6.50" arrival="148.00" arrivalLane="E_J3_O_0" arrivalPos="292.80" arrivalSpeed="12.14" duration="134.00" routeLength="1194.90" waitingTime="23.00" waitingCount="1" stopTime="0.00" timeLoss="36.81" rerouteNo="0" devices="tripinfo_v7" vType="car" speedFactor="0.89" vaporized=""/>
    <tripinfo id="v1" depart="0.00" departLane="E_S1N_J1_0" departPos="5.10" departSpeed="0.00" departDelay="0.00" arrival="148.50" arrivalLane="E_J3_O_1" arrivalPos="292.80" arrivalSpeed="12.65" duration="148.50" routeLength="1014.15" waitingTime="50.00" waitingCount="2" stopTime="0.00" timeLoss="67.82" rerouteNo="0" devices="tripinfo_v1" vType="car" speedFactor="0.94" vaporized=""/>
    <tripinfo id="v25" depart="27.00" departLane="E_S1N_J1_0" departPos="5.10" departSpeed="0.00" departDelay="0.00" arrival="152.50" arrivalLane="E_J3_O_0" arrivalPos="292.80" arrivalSpeed="11.52" duration="125.50" routeLength="1014.15" waitingTime="17.50" waitingCount="2" stopTime="0.00" timeLoss="38.46" rerouteNo="0" devices="tripinfo_v25" vType="car" speedFactor="0.87" vaporized=""/>
    <tripinfo id="v49" depart="54.00" departLane="E_S1N_J1_0" departPos="5.10" departSpeed="0.00" departDelay="0.00" arrival="153.50" arrivalLane="E_J3_O_1" arrivalPos="292.80" arrivalSpeed="11.32" duration="99.50" routeLength="1014.15" waitingTime="0.00" waitingCount="0" stopTime="0.00" timeLoss="10.35" rerouteNo="0" devices="tripinfo_v49" vType="car" speedFactor="0.85" vaporized=""/>
    <tripinfo id="v61" depart="67.50" departLane="E_S1N_J1_0" departPos="5.10" departSpeed="0.00" departDelay="0.00" arrival="154.00" arrivalLane="E_J3_O_0" arrivalPos="292.80" arrivalSpeed="13.77" duration="86.50" routeLength="1014.15" waitingTime="0.00" waitingCount="0" stopTime="0.00" timeLoss="11.91" rerouteNo="0" devices="tripinfo_v61" vType="car" speedFactor="1.12" vaporized=""/>
    <tripinfo id="v69" depart="76.50" departLane="E_S3N_J3_0" departPos="5.10" departSpeed="0.00" departDelay="0.00" arrival="160.50" arrivalLane="E_J3_O_1" arrivalPos="292.80" arrivalSpeed="13.72" duration="84.00" routeLength="414.15" waitingTime="45.00" waitingCount="1" stopTime="0.00" timeLoss="51.89" rerouteNo="0" devices="tripinfo_v69" vType="car" speedFactor="1.02" vaporized=""/>
    <tripinfo id="v81" depart="90.00" departLane="E_S3N_J3_0" departPos="5.10" departSpeed="0.00" departDelay="0.00" arrival="162.50" arrivalLane="E_J3_O_1" arrivalPos="292.80" arrivalSpeed="13.78" duration="72.50" routeLength="414.15" waitingTime="29.50" waitingCount="1" stopTime="0.00" timeLoss="40.08" rerouteNo="0" devices="tripinfo_v81" vType="car" speedFactor="1.00" vaporized=""/>
    <tripinfo id="v93" depart="103.50" departLane="E_S3N_J3_0" departPos="5.10" departSpeed="0.00" departDelay="0.00" arrival="166.50" arrivalLane="E_J3_O_0" arrivalPos="292.80" arrivalSpeed="12.48" duration="63.00" routeLength="414.15" waitingTime="17.00" waitingCount="1" stopTime="0.00" timeLoss="27.77" rerouteNo="0" devices="tripinfo_v93" vType="car" speedFactor="0.92" vaporized=""/>
    <tripinfo id="v105" depart="117.00" departLane="E_S3N_J3_0" departPos="5.10" departSpeed="0.00" departDelay="0.00" arrival="167.50" arrivalLane="E_J3_O_1" arrivalPos="292.80" arrivalSpeed="13.57" duration="50.50" routeLength="414.15" waitingTime="5.50" waitingCount="1" stopTime="0.00" timeLoss="18.87" rerouteNo="0" devices="tripinfo_v105" vType="car" speedFactor="1.07" vaporized=""/>
    <tripinfo id="v117" depart="130.50" departLane="E_S3N_J3_0" departPos="5.10" departSpeed="0.00" departDelay="0.00" arrival="169.50" arrivalLane="E_J3_O_1" arrivalPos="292.80" arrivalSpeed="13.85" duration="39.00" routeLength="414.15" waitingTime="0.00" waitingCount="0" stopTime="0.00" timeLoss="6.28" rerouteNo="0" devices="tripinfo_v117" vType="car" speedFactor="1.00" vaporized=""/>
    <tripinfo id="v129" depart="144.00" departLane="E_S3N_J3_0" departPos="5.10" departSpeed="0.00" departDelay="0.00" arrival="180.50" arrivalLane="E_J3_O_1" arrivalPos="292.80" arrivalSpeed="13.35" duration="36.50" routeLength="414.15" waitingTime="0.00" waitingCount="0" stopTime="0.00" timeLoss="4.06" rerouteNo="0" devices="tripinfo_v129" vType="car" speedFactor="1.01" vaporized=""/>
    <tripinfo id="v141" depart="157.50" departLane="E_S3N_J3_0" departPos="5.10" departSpeed="0.00" departDelay="0.00" arrival="193.00" arrivalLane="E_J3_O_1" arrivalPos="292.80" arrivalSpeed="13.28" duration="35.50" routeLength="414.15" waitingTime="0.00" waitingCount="0" stopTime="0.00" timeLoss="4.64" rerouteNo="0" devices="tripinfo_v141" vType="car" speedFactor="1.16" vaporized=""/>
    <tripinfo id="v10" depart="19.50" departLane="E_A_J1_0" departPos="5.10" departSpeed="0.00" departDelay="9.00" arrival="205.50" arrivalLane="E_J3_O_0" arrivalPos="292.80" arrivalSpeed="13.88" duration="186.00" routeLength="1194.90" waitingTime="84.50" waitingCount="2" stopTime="0.00" timeLoss="99.94" rerouteNo="0" devices="tripinfo_v10" vType="car" speedFactor="1.09" vaporized=""/>
    <tripinfo id="v11" depart="22.50" departLane="E_A_J1_0" departPos="5.10" departSpeed="0.00" departDelay="10.50" arrival="205.50" arrivalLane="E_J3_O_1" arrivalPos="292.80" arrivalSpeed="13.53" duration="183.00" routeLength="1194.90" waitingTime="81.50" waitingCount="2" stopTime="0.00" timeLoss="96.96" rerouteNo="0" devices="tripinfo_v11" vType="car" speedFactor="1.03" vaporized=""/>
    <tripinfo id="v12" depart="25.00" departLane="E_A_J1_0" departPos="5.10" departSpeed="0.00" departDelay="11.50" arrival="207.50" arrivalLane="E_J3_O_0" arrivalPos="292.80" arrivalSpeed="13.61" duration="182.50" routeLength="1194.90" waitingTime="75.00" waitingCount="2" stopTime="0.00" timeLoss="96.38" rerouteNo="0" devices="tripinfo_v12" vType="car" speedFactor="1.05" vaporized=""/>
    <tripinfo id="v14" depart="28.00" departLane="E_A_J1_0" departPos="5.10" departSpeed="0.00" departDelay="13.00" arrival="207.50" arrivalLane="E_J3_O_1" arrivalPos="292.80" arrivalSpeed="13.34" duration="179.50" routeLength="1194.90" waitingTime="71.00" waitingCount="2" stopTime="0.00" timeLoss="92.53" rerouteNo="0" devices="tripinfo_v14" vType="car" speedFactor="0.99" vaporized=""/>
    <tripinfo id="v18" depart="36.50" departLane="E_A_J1_0" departPos="5.10" departSpeed="0.00" departDelay="17.00" arrival="210.00" arrivalLane="E_J3_O_1" arrivalPos="292.80" arrivalSpeed="12.46" duration="173.50" routeLength="1194.90" waitingTime="60.00" waitingCount="2" stopTime="0.00" timeLoss="81.60" rerouteNo="0" devices="tripinfo_v18" vType="car" speedFactor="0.94" vaporized=""/>
    <tripinfo id="v15" depart="31.00" departLane="E_A_J1_0" departPos="5.10" departSpeed="0.00" departDelay="14.50" arrival="210.50" arrivalLane="E_J3_O_0" arrivalPos="292.80" arrivalSpeed="12.45" duration="179.50" routeLength="1194.90" waitingTime="64.50" waitingCount="2" stopTime="0.00" timeLoss="86.65" rerouteNo="0" devices="tripinfo_v15" vType="car" speedFactor="0.93" vaporized=""/>
    <tripinfo id="v19" depart="39.00" departLane="E_A_J1_0" departPos="5.10" departSpeed="0.00" departDelay="18.00" arrival="211.50" arrivalLane="E_J3_O_1" arrivalPos="292.80" arrivalSpeed="13.35" duration="172.50" routeLength="1194.90" waitingTime="57.50" waitingCount="2" stopTime="0.00" timeLoss="86.54" rerouteNo="0" devices="tripinfo_v19" vType="car" speedFactor="1.16" vaporized=""/>
    <tripinfo id="v16" depart="34.00" departLane="E_A_J1_0" departPos="5.10" departSpeed="0.00" departDelay="16.00" arrival="213.50" arrivalLane="E_J3_O_0" arrivalPos="292.80" arrivalSpeed="11.88" duration="179.50" routeLength="1194.90" waitingTime="60.50" waitingCount="2" stopTime="0.00" timeLoss="81.35" rerouteNo="0" devices="tripinfo_v16" vType="car" speedFactor="0.88" vaporized=""/>
    <tripinfo id="v22" depart="44.50" departLane="E_A_J1_0" departPos="5.10" departSpeed="0.00" departDelay="20.50" arrival="213.50" arrivalLane="E_J3_O_1" arrivalPos="292.80" arrivalSpeed="13.40" duration="169.00" routeLength="1194.90" waitingTime="52.00" waitingCount="2" stopTime="0.00" timeLoss="80.50" rerouteNo="0" devices="tripinfo_v22" vType="car" speedFactor="0.97" vaporized=""/>
    <tripinfo id="v20" depart="41.50" departLane="E_A_J1_0" departPos="5.10" departSpeed="0.00" departDelay="19.00" arrival="215.00" arrivalLane="E_J3_O_0" arrivalPos="292.80" arrivalSpeed="13.67" duration="173.50" routeLength="1194.90" waitingTime="54.50" waitingCount="2" stopTime="0.00" timeLoss="87.33" rerouteNo="0" devices="tripinfo_v20" vType="car" speedFactor="1.02" vaporized=""/>
    <tripinfo id="v26" depart="52.50" departLane="E_A_J1_0" departPos="5.10" departSpeed="0.00" departDelay="24.00" arrival="215.50" arrivalLane="E_J3_O_1" arrivalPos="292.80" arrivalSpeed="12.74" duration="163.00" routeLength="1194.90" waitingTime="45.00" waitingCount="2" stopTime="0.00" timeLoss="69.18" rerouteNo="0" devices="tripinfo_v26" vType="car" speedFactor="0.92" vaporized=""/>
    <tripinfo id="v23" depart="47.50" departLane="E_A_J1_0" departPos="5.10" departSpeed="0.00" departDelay="22.00" arrival="217.00" arrivalLane="E_J3_O_0" arrivalPos="292.80" arrivalSpeed="11.92" duration="169.50" routeLength="1194.90" waitingTime="47.00" waitingCount="2" stopTime="0.00" timeLoss="72.55" rerouteNo="0" devices="tripinfo_v23" vType="car" speedFactor="0.89" vaporized=""/>
    <tripinfo id="v27" depart="55.00" departLane="E_A_J1_0" departPos="5.10" departSpeed="0.00" departDelay="25.00" arrival="217.50" arrivalLane="E_J3_O_1" arrivalPos="292.80" arrivalSpeed="12.56" duration="162.50" routeLength="1194.90" waitingTime="41.50" waitingCount="2" stopTime="0.00" timeLoss="71.44" rerouteNo="0" devices="tripinfo_v27" vType="car" speedFactor="0.95" vaporized=""/>
    <tripinfo id="v30" depart="60.50" departLane="E_A_J1_0" departPos="5.10" departSpeed="0.00" departDelay="27.50" arrival="219.00" arrivalLane="E_J3_O_1" arrivalPos="292.80" arrivalSpeed="13.25" duration="158.50" routeLength="1194.90" waitingTime="39.00" waitingCount="2" stopTime="0.00" timeLoss="72.19" rerouteNo="0" devices="tripinfo_v30" vType="car" speedFactor="1.18" vaporized=""/>
    <tripinfo id="v24" depart="50.00" departLane="E_A_J1_0" departPos="5.10" departSpeed="0.00" departDelay="23.00" arrival="220.50" arrivalLane="E_J3_O_0" arrivalPos="292.80" arrivalSpeed="11.29" duration="170.50" routeLength="1194.90" waitingTime="43.00" waitingCount="2" stopTime="0.00" timeLoss="65.97" rerouteNo="0" devices="tripinfo_v24" vType="car" speedFactor="0.83" vaporized=""/>
    <tripinfo id="v32" depart="66.50" departLane="E_A_J1_0" departPos="5.10" departSpeed="0.00" departDelay="30.50" arrival="220.50" arrivalLane="E_J3_O_1" arrivalPos="292.80" arrivalSpeed="13.64" duration="154.00" routeLength="1194.90" waitingTime="33.50" waitingCount="2" stopTime="0.00" timeLoss="67.77" rerouteNo="0" devices="tripinfo_v32" vType="car" speedFactor="1.01" vaporized=""/>
    <tripinfo id="v28" depart="58.00" departLane="E_A_J1_0" departPos="5.10" departSpeed="0.00" departDelay="26.50" arrival="222.00" arrivalLane="E_J3_O_0" arrivalPos="292.80" arrivalSpeed="13.30" duration="164.00" routeLength="1194.90" waitingTime="38.50" waitingCount="2" stopTime="0.00" timeLoss="77.69" rerouteNo="0" devices="tripinfo_v28" vType="car" speedFactor="1.13" vaporized=""/>
    <tripinfo id="v35" depart="72.00" departLane="E_A_J1_0" departPos="5.10" departSpeed="0.00" departDelay="33.00" arrival="222.00" arrivalLane="E_J3_O_1" arrivalPos="292.80" arrivalSpeed="13.36" duration="150.00" routeLength="1194.90" waitingTime="28.00" waitingCount="1" stopTime="0.00" timeLoss="63.91" rerouteNo="0" devices="tripinfo_v35" vType="car" speedFactor="1.02" vaporized=""/>
    <tripinfo id="v31" depart="63.50" departLane="E_A_J1_0" departPos="5.10" departSpeed="0.00" departDelay="29.00" arrival="223.50" arrivalLane="E_J3_O_0" arrivalPos="292.80" arrivalSpeed="13.54" duration="160.00" routeLength="1194.90" waitingTime="32.00" waitingCount="2" stopTime="0.00" timeLoss="73.78" rerouteNo="0" devices="tripinfo_v31" vType="car" speedFactor="1.15" vaporized=""/>
    <tripinfo id="v77" depart="85.50" departLane="E_S2N_J2_0" departPos="5.10" departSpeed="0.00" departDelay="0.00" arrival="223.50" arrivalLane="E_J3_O_1" arrivalPos="292.80" arrivalSpeed="13.64" duration="138.00" routeLength="714.15" waitingTime="62.00" waitingCount="2" stopTime="0.00" timeLoss="83.02" rerouteNo="0" devices="tripinfo_v77" vType="car" speedFactor="0.98" vaporized=""/>
    <tripinfo id="v89" depart="99.00" departLane="E_S2N_J2_0" departPos="5.10" departSpeed="0.00" departDelay="0.00" arrival="225.00" arrivalLane="E_J3_O_0" arrivalPos="292.80" arrivalSpeed="13.80" duration="126.00" routeLength="714.15" waitingTime="44.00" waitingCount="2" stopTime="0.00" timeLoss="72.07" rerouteNo="0" devices="tripinfo_v89" vType="car" speedFactor="1.02" vaporized=""/>
    <tripinfo id="v101" depart="112.50" departLane="E_S2N_J2_0" departPos="5.10" departSpeed="0.00" departDelay="0.00" arrival="225.50" arrivalLane="E_J3_O_1" arrivalPos="292.80" arrivalSpeed="13.14" duration="113.00" routeLength="714.15" waitingTime="33.00" waitingCount="2" stopTime="0.00" timeLoss="56.42" rerouteNo="0" devices="tripinfo_v101" vType="car" speedFactor="0.96" vaporized=""/>
    <tripinfo id="v113" depart="126.00" departLane="E_S2N_J2_0" departPos="5.10" departSpeed="0.00" departDelay="0.00" arrival="226.50" arrivalLane="E_J3_O_0" arrivalPos="292.80" arrivalSpeed="13.77" duration="100.50" routeLength="714.15" waitingTime="20.50" waitingCount="1" stopTime="0.00" timeLoss="46.59" rerouteNo="0" devices="tripinfo_v113" vType="car" speedFactor="1.01" vaporized=""/>
    <tripinfo id="v137" depart="153.00" departLane="E_S2N_J2_0" departPos="5.10" departSpeed="0.00" departDelay="0.00" arrival="227.00" arrivalLane="E_J3_O_1" arrivalPos="292.80" arrivalSpeed="13.60" duration="74.00" routeLength="714.15" waitingTime="2.00" waitingCount="1" stopTime="0.00" timeLoss="20.13" rerouteNo="0" devices="tripinfo_v137" vType="car" speedFactor="1.02" vaporized=""/>
    <tripinfo id="v125" depart="139.50" departLane="E_S2N_J2_0" departPos="5.10" departSpeed="0.00" departDelay="0.00" arrival="228.50" arrivalLane="E_J3_O_0" arrivalPos="292.80" arrivalSpeed="13.50" duration="89.00" routeLength="714.15" waitingTime="11.50" waitingCount="1" stopTime="0.00" timeLoss="36.05" rerouteNo="0" devices="tripinfo_v125" vType="car" speedFactor="1.15" vaporized=""/>
    <tripinfo id="v38" depart="77.50" departLane="E_A_J1_0" departPos="5.10" departSpeed="0.00" departDelay="35.50" arrival="229.00" arrivalLane="E_J3_O_1" arrivalPos="292.80" arrivalSpeed="13.35" duration="151.50" routeLength="1194.90" waitingTime="44.50" waitingCount="1" stopTime="0.00" timeLoss="65.09" rerouteNo="0" devices="tripinfo_v38" vType="car" speedFactor="1.10" vaporized=""/>
    <tripinfo id="v34" depart="69.50" departLane="E_A_J1_0" departPos="5.10" departSpeed="0.00" departDelay="32.00" arrival="230.00" arrivalLane="E_J3_O_0" arrivalPos="292.80" arrivalSpeed="13.82" duration="160.50" routeLength="1194.90" waitingTime="47.00" waitingCount="2" stopTime="0.00" timeLoss="73.75" rerouteNo="0" devices="tripinfo_v34" vType="car" speedFactor="0.99" vaporized=""/>
    <tripinfo id="v40" depart="83.00" departLane="E_A_J1_0" departPos="5.10" departSpeed="0.00" departDelay="38.00" arrival="230.50" arrivalLane="E_J3_O_1" arrivalPos="292.80" arrivalSpeed="13.40" duration="147.50" routeLength="1194.90" waitingTime="41.50" waitingCount="1" stopTime="0.00" timeLoss="61.25" rerouteNo="0" devices="tripinfo_v40" vType="car" speedFactor="1.03" vaporized=""/>
    <tripinfo id="v36" depart="74.50" departLane="E_A_J1_0" departPos="5.10" departSpeed="0.00" departDelay="34.00" arrival="231.50" arrivalLane="E_J3_O_0" arrivalPos="292.80" arrivalSpeed="12.96" duration="157.00" routeLength="1194.90" waitingTime="41.00" waitingCount="1" stopTime="0.00" timeLoss="68.54" rerouteNo="0" devices="tripinfo_v36" vType="car" speedFactor="0.97" vaporized=""/>
    <tripinfo id="v43" depart="88.00" departLane="E_A_J1_0" departPos="5.10" departSpeed="0.00" departDelay="40.00" arrival="232.00" arrivalLane="E_J3_O_1" arrivalPos="292.80" arrivalSpeed="13.76" duration="144.00" routeLength="1194.90" waitingTime="40.00" waitingCount="1" stopTime="0.00" timeLoss="57.86" rerouteNo="0" devices="tripinfo_v43" vType="car" speedFactor="1.04" vaporized=""/>
    <tripinfo id="v44" depart="90.50" departLane="E_A_J1_0" departPos="5.10" departSpeed="0.00" departDelay="41.00" arrival="233.50" arrivalLane="E_J3_O_1" arrivalPos="292.80" arrivalSpeed="13.78" duration="143.00" routeLength="1194.90" waitingTime="39.00" waitingCount="1" stopTime="0.00" timeLoss="56.99" rerouteNo="0" devices="tripinfo_v44" vType="car" speedFactor="1.04" vaporized=""/>
    <tripinfo id="v46" depart="93.50" departLane="E_A_J1_0" departPos="5.10" departSpeed="0.00" departDelay="42.50" arrival="235.50" arrivalLane="E_J3_O_1" arrivalPos="292.80" arrivalSpeed="13.85" duration="142.00" routeLength="1194.90" waitingTime="37.50" waitingCount="1" stopTime="0.00" timeLoss="55.44" rerouteNo="0" devices="tripinfo_v46" vType="car" speedFactor="1.00" vaporized=""/>
    <tripinfo id="v39" depart="80.50" departLane="E_A_J1_0" departPos="5.10" departSpeed="0.00" departDelay="37.00" arrival="236.00" arrivalLane="E_J3_O_0" arrivalPos="292.80" arrivalSpeed="12.05" duration="155.50" routeLength="1194.90" waitingTime="39.00" waitingCount="1" stopTime="0.00" timeLoss="59.85" rerouteNo="0" devices="tripinfo_v39" vType="car" speedFactor="0.90" vaporized=""/>
    <tripinfo id="v51" depart="104.50" departLane="E_A_J1_0" departPos="5.10" departSpeed="0.00" departDelay="47.50" arrival="237.00" arrivalLane="E_J3_O_1" arrivalPos="292.80" arrivalSpeed="13.34" duration="132.50" routeLength="1194.90" waitingTime="30.00" waitingCount="1" stopTime="0.00" timeLoss="46.32" rerouteNo="0" devices="tripinfo_v51" vType="car" speedFactor="1.17" vaporized=""/>
    <tripinfo id="v42" depart="85.50" departLane="E_A_J1_0" departPos="5.10" departSpeed="0.00" departDelay="39.00" arrival="237.50" arrivalLane="E_J3_O_0" arrivalPos="292.80" arrivalSpeed="13.29" duration="152.00" routeLength="1194.90" waitingTime="38.00" waitingCount="1" stopTime="0.00" timeLoss="65.90" rerouteNo="0" devices="tripinfo_v42" vType="car" speedFactor="1.09" vaporized=""/>
    <tripinfo id="v52" depart="107.00" departLane="E_A_J1_0" departPos="5.10" departSpeed="0.00" departDelay="48.50" arrival="238.50" arrivalLane="E_J3_O_1" arrivalPos="292.80" arrivalSpeed="13.39" duration="131.50" routeLength="1194.90" waitingTime="28.50" waitingCount="1" stopTime="0.00" timeLoss="45.49" rerouteNo="0" devices="tripinfo_v52" vType="car" speedFactor="1.02" vaporized=""/>
    <tripinfo id="v47" depart="96.00" departLane="E_A_J1_0" departPos="5.10" departSpeed="0.00" departDelay="43.50" arrival="239.50" arrivalLane="E_J3_O_0" arrivalPos="292.80" arrivalSpeed="12.08" duration="143.50" routeLength="1194.90" waitingTime="33.50" waitingCount="1" stopTime="0.00" timeLoss="47.87" rerouteNo="0" devices="tripinfo_v47" vType="car" speedFactor="0.90" vaporized=""/>
    <tripinfo id="v73" depart="81.00" departLane="E_S1N_J1_0" departPos="5.10" departSpeed="0.00" departDelay="0.00" arrival="240.50" arrivalLane="E_J3_O_1" arrivalPos="292.80" arrivalSpeed="13.61" duration="159.50" routeLength="1014.15" waitingTime="64.50" waitingCount="2" stopTime="0.00" timeLoss="84.21" rerouteNo="0" devices="tripinfo_v73" vType="car" speedFactor="1.06" vaporized=""/>
    <tripinfo id="v48" depart="99.00" departLane="E_A_J1_0" departPos="5.10" departSpeed="0.00" departDelay="45.00" arrival="242.50" arrivalLane="E_J3_O_0" arrivalPos="292.80" arrivalSpeed="11.63" duration="143.50" routeLength="1194.90" waitingTime="30.50" waitingCount="1" stopTime="0.00" timeLoss="45.17" rerouteNo="0" devices="tripinfo_v48" vType="car" speedFactor="0.88" vaporized=""/>
    <tripinfo id="v109" depart="121.50" departLane="E_S1N_J1_0" departPos="5.10" departSpeed="0.00" departDelay="0.00" arrival="243.00" arrivalLane="E_J3_O_1" arrivalPos="292.80" arrivalSpeed="12.85" duration="121.50" routeLength="1014.15" waitingTime="20.50" waitingCount="2" stopTime="0.00" timeLoss="42.40" rerouteNo="0" devices="tripinfo_v109" vType="car" speedFactor="0.96" vaporized=""/>
    <tripinfo id="v121" depart="135.00" departLane="E_S1N_J1_0" departPos="5.10" departSpeed="0.00" departDelay="0.00" arrival="244.50" arrivalLane="E_J3_O_1" arrivalPos="292.80" arrivalSpeed="13.83" duration="109.50" routeLength="1014.15" waitingTime="17.00" waitingCount="1" stopTime="0.00" timeLoss="34.65" rerouteNo="0" devices="tripinfo_v121" vType="car" speedFactor="1.10" vaporized=""/>
    <tripinfo id="v50" depart="102.00" departLane="E_A_J1_0" departPos="5.10" departSpeed="0.00" departDelay="46.50" arrival="245.00" arrivalLane="E_J3_O_0" arrivalPos="292.80" arrivalSpeed="11.26" duration="143.00" routeLength="1194.90" waitingTime="28.00" waitingCount="1" stopTime="0.00" timeLoss="42.40" rerouteNo="0" devices="tripinfo_v50" vType="car" speedFactor="0.85" vaporized=""/>